# vtk DataFile Version 1.0
unstructured grid
ascii
DATASET UNSTRUCTURED_GRID
points 7465 float
0 0 0.0
1 0 0.0
2 0 0.0
2 2 0.0
0 2 0.0
0 0.25 0.0
2 0.25 0.0
0.0481365 0 0.0
0.0940718 0 0.0
0.137906 0 0.0
0.179737 0 0.0
0.219654 0 0.0
0.257746 0 0.0
0.294095 0 0.0
0.328783 0 0.0
0.361884 0 0.0
0.393472 0 0.0
0.423615 0 0.0
0.45238 0 0.0
0.479829 0 0.0
0.506023 0 0.0
0.53102 0 0.0
0.554873 0 0.0
0.577635 0 0.0
0.599357 0 0.0
0.620085 0 0.0
0.639865 0 0.0
0.658741 0 0.0
0.676753 0 0.0
0.693942 0 0.0
0.710345 0 0.0
0.725997 0 0.0
0.740934 0 0.0
0.755188 0 0.0
0.76879 0 0.0
0.78177 0 0.0
0.794157 0 0.0
0.805977 0 0.0
0.817256 0 0.0
0.82802 0 0.0
0.838291 0 0.0
0.848093 0 0.0
0.857446 0 0.0
0.866372 0 0.0
0.87489 0 0.0
0.883018 0 0.0
0.890774 0 0.0
0.898176 0 0.0
0.905239 0 0.0
0.911979 0 0.0
0.918411 0 0.0
0.924549 0 0.0
0.930406 0 0.0
0.935996 0 0.0
0.941329 0 0.0
0.946419 0 0.0
0.951276 0 0.0
0.955911 0 0.0
0.960334 0 0.0
0.964555 0 0.0
0.968583 0 0.0
0.972426 0 0.0
0.976094 0 0.0
0.979594 0 0.0
0.982934 0 0.0
0.986121 0 0.0
0.989163 0 0.0
0.992065 0 0.0
0.994835 0 0.0
0.997478 0 0.0
1.0025 0 0.0
1.005 0 0.0
1.0075 0 0.0
1.01 0 0.0
1.0125 0 0.0
1.015 0 0.0
1.0175 0 0.0
1.02 0 0.0
1.0225 0 0.0
1.025 0 0.0
1.0275 0 0.0
1.03 0 0.0
1.0325 0 0.0
1.035 0 0.0
1.0375 0 0.0
1.04 0 0.0
1.0425 0 0.0
1.045 0 0.0
1.0475 0 0.0
1.05 0 0.0
1.0525 0 0.0
1.055 0 0.0
1.0575 0 0.0
1.06 0 0.0
1.0625 0 0.0
1.065 0 0.0
1.0675 0 0.0
1.07 0 0.0
1.0725 0 0.0
1.075 0 0.0
1.0775 0 0.0
1.08 0 0.0
1.0825 0 0.0
1.085 0 0.0
1.0875 0 0.0
1.09 0 0.0
1.0925 0 0.0
1.095 0 0.0
1.0975 0 0.0
1.1 0 0.0
1.1025 0 0.0
1.105 0 0.0
1.1075 0 0.0
1.11 0 0.0
1.1125 0 0.0
1.115 0 0.0
1.1175 0 0.0
1.12 0 0.0
1.1225 0 0.0
1.125 0 0.0
1.1275 0 0.0
1.13 0 0.0
1.1325 0 0.0
1.135 0 0.0
1.1375 0 0.0
1.14 0 0.0
1.1425 0 0.0
1.145 0 0.0
1.1475 0 0.0
1.15 0 0.0
1.1525 0 0.0
1.155 0 0.0
1.1575 0 0.0
1.16 0 0.0
1.1625 0 0.0
1.165 0 0.0
1.1675 0 0.0
1.17 0 0.0
1.1725 0 0.0
1.175 0 0.0
1.1775 0 0.0
1.18 0 0.0
1.1825 0 0.0
1.185 0 0.0
1.1875 0 0.0
1.19 0 0.0
1.1925 0 0.0
1.195 0 0.0
1.1975 0 0.0
1.2 0 0.0
1.2025 0 0.0
1.205 0 0.0
1.2075 0 0.0
1.21 0 0.0
1.2125 0 0.0
1.215 0 0.0
1.2175 0 0.0
1.22 0 0.0
1.2225 0 0.0
1.225 0 0.0
1.2275 0 0.0
1.23 0 0.0
1.2325 0 0.0
1.235 0 0.0
1.2375 0 0.0
1.24 0 0.0
1.2425 0 0.0
1.245 0 0.0
1.2475 0 0.0
1.25 0 0.0
1.2525 0 0.0
1.255 0 0.0
1.2575 0 0.0
1.26 0 0.0
1.2625 0 0.0
1.265 0 0.0
1.2675 0 0.0
1.27 0 0.0
1.2725 0 0.0
1.275 0 0.0
1.2775 0 0.0
1.28 0 0.0
1.2825 0 0.0
1.285 0 0.0
1.2875 0 0.0
1.29 0 0.0
1.2925 0 0.0
1.295 0 0.0
1.2975 0 0.0
1.3 0 0.0
1.3025 0 0.0
1.305 0 0.0
1.3075 0 0.0
1.31 0 0.0
1.3125 0 0.0
1.315 0 0.0
1.3175 0 0.0
1.32 0 0.0
1.3225 0 0.0
1.325 0 0.0
1.3275 0 0.0
1.33 0 0.0
1.3325 0 0.0
1.335 0 0.0
1.3375 0 0.0
1.34 0 0.0
1.3425 0 0.0
1.345 0 0.0
1.3475 0 0.0
1.35 0 0.0
1.3525 0 0.0
1.355 0 0.0
1.3575 0 0.0
1.36 0 0.0
1.3625 0 0.0
1.365 0 0.0
1.3675 0 0.0
1.37 0 0.0
1.3725 0 0.0
1.375 0 0.0
1.3775 0 0.0
1.38 0 0.0
1.3825 0 0.0
1.385 0 0.0
1.3875 0 0.0
1.39 0 0.0
1.3925 0 0.0
1.395 0 0.0
1.3975 0 0.0
1.4 0 0.0
1.4025 0 0.0
1.405 0 0.0
1.4075 0 0.0
1.41 0 0.0
1.4125 0 0.0
1.415 0 0.0
1.4175 0 0.0
1.42 0 0.0
1.4225 0 0.0
1.425 0 0.0
1.4275 0 0.0
1.43 0 0.0
1.4325 0 0.0
1.435 0 0.0
1.4375 0 0.0
1.44 0 0.0
1.4425 0 0.0
1.445 0 0.0
1.4475 0 0.0
1.45 0 0.0
1.4525 0 0.0
1.455 0 0.0
1.4575 0 0.0
1.46 0 0.0
1.4625 0 0.0
1.465 0 0.0
1.4675 0 0.0
1.47 0 0.0
1.4725 0 0.0
1.475 0 0.0
1.4775 0 0.0
1.48 0 0.0
1.4825 0 0.0
1.485 0 0.0
1.4875 0 0.0
1.49 0 0.0
1.4925 0 0.0
1.495 0 0.0
1.4975 0 0.0
1.5 0 0.0
1.5025 0 0.0
1.505 0 0.0
1.5075 0 0.0
1.51 0 0.0
1.5125 0 0.0
1.515 0 0.0
1.5175 0 0.0
1.52 0 0.0
1.5225 0 0.0
1.525 0 0.0
1.5275 0 0.0
1.53 0 0.0
1.5325 0 0.0
1.535 0 0.0
1.5375 0 0.0
1.54 0 0.0
1.5425 0 0.0
1.545 0 0.0
1.5475 0 0.0
1.55 0 0.0
1.5525 0 0.0
1.555 0 0.0
1.5575 0 0.0
1.56 0 0.0
1.5625 0 0.0
1.565 0 0.0
1.5675 0 0.0
1.57 0 0.0
1.5725 0 0.0
1.575 0 0.0
1.5775 0 0.0
1.58 0 0.0
1.5825 0 0.0
1.585 0 0.0
1.5875 0 0.0
1.59 0 0.0
1.5925 0 0.0
1.595 0 0.0
1.5975 0 0.0
1.6 0 0.0
1.6025 0 0.0
1.605 0 0.0
1.6075 0 0.0
1.61 0 0.0
1.6125 0 0.0
1.615 0 0.0
1.6175 0 0.0
1.62 0 0.0
1.6225 0 0.0
1.625 0 0.0
1.6275 0 0.0
1.63 0 0.0
1.6325 0 0.0
1.635 0 0.0
1.6375 0 0.0
1.64 0 0.0
1.6425 0 0.0
1.645 0 0.0
1.6475 0 0.0
1.65 0 0.0
1.6525 0 0.0
1.655 0 0.0
1.6575 0 0.0
1.66 0 0.0
1.6625 0 0.0
1.665 0 0.0
1.6675 0 0.0
1.67 0 0.0
1.6725 0 0.0
1.675 0 0.0
1.6775 0 0.0
1.68 0 0.0
1.6825 0 0.0
1.685 0 0.0
1.6875 0 0.0
1.69 0 0.0
1.6925 0 0.0
1.695 0 0.0
1.6975 0 0.0
1.7 0 0.0
1.7025 0 0.0
1.705 0 0.0
1.7075 0 0.0
1.71 0 0.0
1.7125 0 0.0
1.715 0 0.0
1.7175 0 0.0
1.72 0 0.0
1.7225 0 0.0
1.725 0 0.0
1.7275 0 0.0
1.73 0 0.0
1.7325 0 0.0
1.735 0 0.0
1.7375 0 0.0
1.74 0 0.0
1.7425 0 0.0
1.745 0 0.0
1.7475 0 0.0
1.75 0 0.0
1.7525 0 0.0
1.755 0 0.0
1.7575 0 0.0
1.76 0 0.0
1.7625 0 0.0
1.765 0 0.0
1.7675 0 0.0
1.77 0 0.0
1.7725 0 0.0
1.775 0 0.0
1.7775 0 0.0
1.78 0 0.0
1.7825 0 0.0
1.785 0 0.0
1.7875 0 0.0
1.79 0 0.0
1.7925 0 0.0
1.795 0 0.0
1.7975 0 0.0
1.8 0 0.0
1.8025 0 0.0
1.805 0 0.0
1.8075 0 0.0
1.81 0 0.0
1.8125 0 0.0
1.815 0 0.0
1.8175 0 0.0
1.82 0 0.0
1.8225 0 0.0
1.825 0 0.0
1.8275 0 0.0
1.83 0 0.0
1.8325 0 0.0
1.835 0 0.0
1.8375 0 0.0
1.84 0 0.0
1.8425 0 0.0
1.845 0 0.0
1.8475 0 0.0
1.85 0 0.0
1.8525 0 0.0
1.855 0 0.0
1.8575 0 0.0
1.86 0 0.0
1.8625 0 0.0
1.865 0 0.0
1.8675 0 0.0
1.87 0 0.0
1.8725 0 0.0
1.875 0 0.0
1.8775 0 0.0
1.88 0 0.0
1.8825 0 0.0
1.885 0 0.0
1.8875 0 0.0
1.89 0 0.0
1.8925 0 0.0
1.895 0 0.0
1.8975 0 0.0
1.9 0 0.0
1.9025 0 0.0
1.905 0 0.0
1.9075 0 0.0
1.91 0 0.0
1.9125 0 0.0
1.915 0 0.0
1.9175 0 0.0
1.92 0 0.0
1.9225 0 0.0
1.925 0 0.0
1.9275 0 0.0
1.93 0 0.0
1.9325 0 0.0
1.935 0 0.0
1.9375 0 0.0
1.94 0 0.0
1.9425 0 0.0
1.945 0 0.0
1.9475 0 0.0
1.95 0 0.0
1.9525 0 0.0
1.955 0 0.0
1.9575 0 0.0
1.96 0 0.0
1.9625 0 0.0
1.965 0 0.0
1.9675 0 0.0
1.97 0 0.0
1.9725 0 0.0
1.975 0 0.0
1.9775 0 0.0
1.98 0 0.0
1.9825 0 0.0
1.985 0 0.0
1.9875 0 0.0
1.99 0 0.0
1.9925 0 0.0
1.995 0 0.0
1.9975 0 0.0
2 0.0025 0.0
2 0.005 0.0
2 0.0075 0.0
2 0.01 0.0
2 0.0125 0.0
2 0.015 0.0
2 0.0175 0.0
2 0.02 0.0
2 0.0225 0.0
2 0.025 0.0
2 0.0275 0.0
2 0.03 0.0
2 0.0325 0.0
2 0.035 0.0
2 0.0375 0.0
2 0.04 0.0
2 0.0425 0.0
2 0.045 0.0
2 0.0475 0.0
2 0.05 0.0
2 0.0525 0.0
2 0.055 0.0
2 0.0575 0.0
2 0.06 0.0
2 0.0625 0.0
2 0.065 0.0
2 0.0675 0.0
2 0.07 0.0
2 0.0725 0.0
2 0.075 0.0
2 0.0775 0.0
2 0.08 0.0
2 0.0825 0.0
2 0.085 0.0
2 0.0875 0.0
2 0.09 0.0
2 0.0925 0.0
2 0.095 0.0
2 0.0975 0.0
2 0.1 0.0
2 0.1025 0.0
2 0.105 0.0
2 0.1075 0.0
2 0.11 0.0
2 0.1125 0.0
2 0.115 0.0
2 0.1175 0.0
2 0.12 0.0
2 0.1225 0.0
2 0.125 0.0
2 0.1275 0.0
2 0.13 0.0
2 0.1325 0.0
2 0.135 0.0
2 0.1375 0.0
2 0.14 0.0
2 0.1425 0.0
2 0.145 0.0
2 0.1475 0.0
2 0.15 0.0
2 0.1525 0.0
2 0.155 0.0
2 0.1575 0.0
2 0.16 0.0
2 0.1625 0.0
2 0.165 0.0
2 0.1675 0.0
2 0.17 0.0
2 0.1725 0.0
2 0.175 0.0
2 0.1775 0.0
2 0.18 0.0
2 0.1825 0.0
2 0.185 0.0
2 0.1875 0.0
2 0.19 0.0
2 0.1925 0.0
2 0.195 0.0
2 0.1975 0.0
2 0.2 0.0
2 0.2025 0.0
2 0.205 0.0
2 0.2075 0.0
2 0.21 0.0
2 0.2125 0.0
2 0.215 0.0
2 0.2175 0.0
2 0.22 0.0
2 0.2225 0.0
2 0.225 0.0
2 0.2275 0.0
2 0.23 0.0
2 0.2325 0.0
2 0.235 0.0
2 0.2375 0.0
2 0.24 0.0
2 0.2425 0.0
2 0.245 0.0
2 0.2475 0.0
2 0.25264 0.0
2 0.255753 0.0
2 0.259425 0.0
2 0.263757 0.0
2 0.268866 0.0
2 0.274892 0.0
2 0.281999 0.0
2 0.290382 0.0
2 0.30027 0.0
2 0.311933 0.0
2 0.325689 0.0
2 0.341915 0.0
2 0.361053 0.0
2 0.383626 0.0
2 0.41025 0.0
2 0.441654 0.0
2 0.478695 0.0
2 0.522384 0.0
2 0.573915 0.0
2 0.634695 0.0
2 0.706385 0.0
2 0.790944 0.0
2 0.89068 0.0
2 1.00832 0.0
2 1.14707 0.0
2 1.31073 0.0
2 1.50377 0.0
2 1.73145 0.0
1.71429 2 0.0
1.42857 2 0.0
1.14286 2 0.0
0.857143 2 0.0
0.571429 2 0.0
0.285714 2 0.0
0 1.72962 0.0
0 1.49406 0.0
0 1.28882 0.0
0 1.11001 0.0
0 0.954218 0.0
0 0.818486 0.0
0 0.70023 0.0
0 0.597199 0.0
0 0.507434 0.0
0 0.429226 0.0
0 0.361088 0.0
0 0.301722 0.0
0 0.2 0.0
0 0.15 0.0
0 0.1 0.0
0 0.05 0.0
1.74877 0.00217262 0.0
1.71375 0.00216506 0.0
1.67849 0.00212584 0.0
1.64125 0.0020902 0.0
1.60111 0.00213251 0.0
1.5587 0.00168023 0.0
1.51401 0.00199777 0.0
1.46628 0.00222845 0.0
1.4166 0.0019564 0.0
1.36636 0.00224686 0.0
1.3138 0.0023075 0.0
1.25875 0.00216506 0.0
1.20125 0.00216506 0.0
1.14125 0.00211141 0.0
1.07875 0.00216063 0.0
1.01375 0.00213436 0.0
0.953565 0.00405134 0.0
0.878906 0.00675214 0.0
1.99789 0.248725 0.0
1.04625 0.00216673 0.0
1.78118 0.00204692 0.0
1.99783 0.216077 0.0
1.17124 0.00210351 0.0
1.111 0.00202738 0.0
1.81126 0.0022223 0.0
1.99778 0.18623 0.0
1.23125 0.00212236 0.0
1.28625 0.00216506 0.0
1.83861 0.00201183 0.0
1.99798 0.158784 0.0
1.44102 0.00227776 0.0
1.34125 0.00216506 0.0
1.39115 0.00232256 0.0
0.788979 0.0099202 0.0
1.86375 0.00216506 0.0
1.99763 0.133665 0.0
1.99201 0.285598 0.0
1.4913 0.00210295 0.0
1.53614 0.00219849 0.0
1.88626 0.00193508 0.0
0.990614 0.00245609 0.0
1.99785 0.110955 0.0
1.90623 0.0023235 0.0
1.58111 0.00232101 0.0
1.62118 0.00227679 0.0
1.9979 0.09125 0.0
0.685348 0.0145456 0.0
1.92617 0.00221346 0.0
1.9979 0.0735037 0.0
1.73145 0.00222066 0.0
1.66144 0.00213837 0.0
1.69596 0.00216323 0.0
1.98194 0.372339 0.0
0.565902 0.0237401 0.0
0.921627 0.00435804 0.0
1.94364 0.00221395 0.0
1.99772 0.0564535 0.0
1.99783 0.20125 0.0
1.76624 0.00219979 0.0
1.7965 0.00215391 0.0
1.99811 0.231552 0.0
1.9592 0.54707 0.0
1.95875 0.00216506 0.0
0.438788 0.0216644 0.0
1.99798 0.0411887 0.0
1.85136 0.00186496 0.0
1.99785 0.14625 0.0
1.82659 0.00241721 0.0
1.99789 0.171488 0.0
1.47875 0.00219268 0.0
1.45375 0.00216138 0.0
1.42855 0.00218068 0.0
1.40334 0.00235133 0.0
1.37875 0.00214975 0.0
1.35375 0.00236244 0.0
1.32882 0.00215965 0.0
1.29875 0.00208722 0.0
1.24606 0.00219592 0.0
1.27143 0.00246675 0.0
1.21875 0.00216506 0.0
1.91224 0.842367 0.0
1.97127 0.00197957 0.0
1.99671 0.261564 0.0
1.99775 0.0288926 0.0
0.843468 0.0082206 0.0
0.0993383 0.888469 0.0
0.978018 0.00331361 0.0
1.99777 0.101244 0.0
1.8962 0.00218276 0.0
1.91625 0.0020608 0.0
1.9978 0.121181 0.0
1.8761 0.00215082 0.0
1.63125 0.0021184 0.0
[...]
CELL_DATA 14310
SCALARS rho float
LOOKUP_TABLE default
1.02012
1.02012
1.02012
1.02012
1.02012
1.02012
1.02012
1.02012
1.02012
1.02012
1.02012
1.02012
1.02012
1.02012
1.02012
1.02012
1.02012
1.02012
1.02012
1.02012
1.02012
1.02012
1.02012
1.02012
1.02012
1.02012
1.02012
1.02012
1.02012
1.02012
1.02012
1.02012
1.02012
1.02012
1.02012
1.02012
1.02012
1.02012
1.02012
1.02012
1.02012
1.02012
1.02012
1.02012
1.02012
1.02012
1.02012
1.02012
1.02012
1.02012
1.02012
1.02012
1.02012
1.02012
1.02012
1.02012
1.02012
1.02012
1.02012
1.02012
1.02012
1.02012
1.02012
1.02012
1.02012
1.02012
1.02012
1.02012
1.02012
1.02012
1.02012
1.02012
1.02012
1.02012
1.02012
1.02012
1.02012
1.02012
1.02012
1.02012
1.02012
1.02012
1.02012
1.02012
1.02012
1.02012
1.02012
1.02012
1.02012
1.02012
1.02012
1.02012
1.02012
1.02012
1.02012
1.02012
1.02012
1.02012
1.02012
1.02012
1.02012
1.02012
1.02012
1.02012
1.02012
1.02012
1.02012
1.02012
1.02012
1.02012
1.02012
1.02012
1.02012
1.02012
1.02012
1.02012
1.02012
1.02012
1.02012
1.02012
1.02012
1.02012
1.02012
1.02012
1.02012
1.02012
1.02012
1.02012
1.02012
1.02012
1.02012
1.02012
1.02012
1.02012
1.02012
1.02012
1.02012
1.02012
1.02012
1.02012
1.02012
1.02012
1.02012
1.02012
1.02012
1.02012
1.02012
1.02012
1.02012
1.02012
1.02012
1.02012
1.02012
1.02012
1.02012
1.02012
1.02012
1.02012
1.02012
1.02012
1.02012
1.02012
1.02012
1.02012
1.02012
1.02012
1.02012
1.02012
1.02012
1.02012
1.02012
1.02012
1.02012
1.02012
1.02012
1.02012
1.02012
1.02012
1.02012
1.02012
1.02012
1.02012
1.02012
1.02012
1.02012
1.02012
1.02012
1.02012
1.02012
1.02012
1.02012
1.02012
1.02012
1.02012
1.02012
1.02012
1.02012
1.02012
1.02012
1.02012
1.02012
1.02012
1.02012
1.02012
1.02012
1.02012
1.02012
1.02012
1.02012
1.02012
1.02012
1.02012
1.02012
1.02012
1.02012
1.02012
1.02012
1.02012
1.02012
1.02012
1.02012
1.02012
1.02012
1.02012
1.02012
1.02012
1.02012
1.02012
1.02012
1.02012
1.02012
1.02012
1.02012
1.02012
1.02012
1.02012
1.02012
1.02012
1.02012
1.02012
1.02012
1.02012
1.02012
1.02012
1.02012
1.02012
1.02012
1.02012
1.02012
1.02012
1.02012
1.02012
1.02012
1.02012
1.02012
1.02012
1.02012
1.02012
1.02012
1.02012
1.02012
1.02012
1.02012
1.02012
1.02012
1.02012
1.02012
1.02012
1.02012
1.02012
1.02012
1.02012
1.02012
1.02012
1.02012
1.02012
1.02012
1.02012
1.02012
1.02012
1.02012
1.02012
1.02012
1.02012
1.02012
1.02012
1.02012
1.02012
1.02012
1.02012
1.02012
1.02012
1.02012
1.02012
1.02012
1.02012
1.02012
1.02012
1.02012
1.02012
1.02012
1.02012
1.02012
1.02012
1.02012
1.02012
1.02012
1.02012
1.02012
1.02012
1.02012
1.02012
1.02012
1.02012
1.02012
1.02012
1.02012
1.02012
1.02012
1.02012
1.02012
1.02012
1.02012
1.02012
1.02012
1.02012
1.02012
1.02012
1.02012
1.02012
1.02012
1.02012
1.02012
1.02012
1.02012
1.02012
1.02012
1.02012
1.02012
1.02012
1.02012
1.02012
1.02012
1.02012
1.02012
1.02012
1.02012
1.02012
1.02012
1.02012
1.02012
1.02012
1.02012
1.02012
1.02012
1.02012
1.02012
1.02012
1.02012
1.02012
1.02012
1.02012
1.02012
1.02012
1.02012
1.02012
1.02012
1.02012
1.02012
1.02012
1.02012
1.02012
1.02012
1.02012
1.02012
1.02012
1.02012
1.02012
1.02012
1.02012
1.02012
1.02012
1.02012
1.02012
1.02012
1.02012
1.02012
1.02012
1.02012
1.02012
1.02012
1.02012
1.02012
1.02012
1.02012
1.02012
1.02012
1.02012
1.02012
1.02012
1.02012
1.02012
1.02012
1.02012
1.02012
1.02012
1.02012
1.02012
1.02012
1.02012
1.02012
1.02012
1.02012
1.02012
1.02012
1.02012
1.02012
1.02012
1.02012
1.02012
1.02012
1.02012
1.02012
1.02012
1.02012
1.02012
1.02012
1.02012
1.02012
1.02012
1.02012
1.02012
1.02012
1.02012
1.02012
1.02012
1.02012
1.02012
1.02012
1.02012
1.02012
1.02012
1.02012
1.02012
1.02012
1.02012
1.02012
1.02012
1.02012
1.02012
1.02012
1.02012
1.02012
1.02012
1.02012
1.02012
1.02012
1.02012
1.02012
1.02012
1.02012
1.02012
1.02012
1.02012
1.02012
1.02012
1.02012
1.02012
1.02012
1.02012
1.02012
1.02012
1.02012
1.02012
1.02012
1.02012
1.02012
1.02012
1.02012
1.02012
1.02012
1.02012
1.02012
1.02012
1.02012
1.02012
1.02012
1.02012
1.02012
1.02012
1.02012
1.02012
1.02012
1.02012
1.02012
1.02012
1.02012
1.02012
1.02012
1.02012
1.02012
1.02012
1.02012
1.02012
1.02012
1.02012
1.02012
1.02012
1.02012
1.02012
1.02012
1.02012
1.02012
1.02012
1.02012
1.02012
1.02012
1.02012
1.02012
1.02012
1.02012
1.02012
1.02012
1.02012
1.02012
1.02012
1.02012
1.02012
1.02012
1.02012
1.02012
1.02012
1.02012
1.02012
1.02012
1.02012
1.02012
1.02012
1.02012
1.02012
1.02012
1.02012
1.02012
1.02012
1.02012
1.02012
1.02012
1.02012
1.02012
1.02012
1.02012
1.02012
1.02012
1.02012
1.02012
1.02012
1.02012
1.02012
1.02012
1.02012
1.02012
1.02012
1.02012
1.02012
1.02012
1.02012
1.02012
1.02012
1.02012
1.02012
1.02012
1.02012
1.02012
1.02012
1.02012
1.02012
1.02012
1.02012
1.02012
1.02012
1.02012
1.02012
1.02012
1.02012
1.02012
1.02012
1.02012
1.02012
1.02012
1.02012
1.02012
1.02012
1.02012
1.02012
1.02012
1.02012
1.02012
1.02012
1.02012
1.02012
1.02012
1.02012
1.02012
1.02012
1.02012
1.02012
1.02012
1.02012
1.02012
1.02012
1.02012
1.02012
1.02012
1.02012
1.02012
1.02012
1.02012
1.02012
1.02012
1.02012
1.02012
1.02012
1.02012
1.02012
1.02012
1.02012
1.02012
1.02012
1.02012
1.02012
1.02012
1.02012
1.02012
1.02012
1.02012
1.02012
1.02012
1.02012
1.02012
1.02012
1.02012
1.02012
1.02012
1.02012
1.02012
1.02012
1.02012
1.02012
1.02012
1.02012
1.02012
1.02012
1.02012
1.02012
1.02012
1.02012
1.02012
1.02012
1.02012
1.02012
1.02012
1.02012
1.02012
1.02012
1.02012
1.02012
1.02012
1.02012
1.02012
1.02012
1.02012
1.02012
1.02012
1.02012
1.02012
1.02012
1.02012
1.02012
1.02012
1.02012
1.02012
1.02012
1.02012
1.02012
1.02012
1.02012
1.02012
1.02012
1.02012
1.02012
1.02012
1.02012
1.02012
1.02012
1.02012
1.02012
1.02012
1.02012
1.02012
1.02012
1.02012
1.02012
1.02012
1.02012
1.02012
1.02012
1.02012
1.02012
1.02012
1.02012
1.02012
1.02012
1.02012
1.02012
1.02012
1.02012
1.02012
1.02012
1.02012
1.02012
1.02012
1.02012
1.02012
1.02012
1.02012
1.02012
1.02012
1.02012
1.02012
1.02012
1.02012
1.02012
1.02012
1.02012
1.02012
1.02012
1.02012
1.02012
1.02012
1.02012
1.02012
1.02012
1.02012
1.02012
1.02012
1.02012
1.02012
1.02012
1.02012
1.02012
1.02012
1.02012
1.02012
1.02012
1.02012
1.02012
1.02012
1.02012
1.02012
1.02012
1.02012
1.02012
1.02012
1.02012
1.02012
1.02012
1.02012
1.02012
1.02012
1.02012
1.02012
1.02012
1.02012
1.02012
1.02012
1.02012
1.02012
1.02012
1.02012
1.02012
1.02012
1.02012
1.02012
1.02012
1.02012
1.02012
1.02012
1.02012
1.02012
1.02012
1.02012
1.02012
1.02012
1.02012
1.02012
1.02012
1.02012
1.02012
1.02012
1.02012
1.02012
1.02012
1.02012
1.02012
1.02012
1.02012
1.02012
1.02012
1.02012
1.02012
1.02012
1.02012
1.02012
1.02012
1.02012
1.02012
1.02012
1.02012
1.02012
1.02012
1.02012
1.02012
1.02012
1.02012
1.02012
1.02012
1.02012
1.02012
1.02012
1.02012
1.02012
1.02012
1.02012
1.02012
1.02012
1.02012
1.02012
1.02012
1.02012
1.02012
1.02012
1.02012
1.02012
1.02012
1.02012
1.02012
1.02012
1.02012
1.02012
1.02012
1.02012
1.02012
1.02012
1.02012
1.02012
1.02012
1.02012
1.02012
1.02012
1.02012
1.02012
1.02012
1.02012
1.02012
1.02012
1.02012
1.02012
1.02012
1.02012
1.02012
1.02012
1.02012
1.02012
1.02012
1.02012
1.02012
1.02012
1.02012
1.02012
1.02012
1.02012
1.02012
1.02012
1.02012
1.02012
1.02012
1.02012
1.02012
1.02012
1.02012
1.02012
1.02012
1.02012
1.02012
1.02012
1.02012
1.02012
1.02012
1.02012
1.02012
1.02012
1.02012
1.02012
1.02012
1.02012
1.02012
1.02012
1.02012
1.02012
1.02012
1.02012
1.02012
1.02012
1.02012
1.02012
1.02012
1.02012
1.02012
1.02012
1.02012
1.02012
1.02012
1.02012
1.02012
1.02012
1.02012
1.02012
1.02012
1.02012
1.02012
1.02012
1.02012
1.02012
1.02012
1.02012
1.02012
1.02012
1.02012
1.02012
1.02012
1.02012
1.02012
1.02012
1.02012
1.02012
1.02012
1.02012
1.02012
1.02012
1.02012
1.02012
1.02012
1.02012
1.02012
1.02012
1.02012
1.02012
1.02012
1.02012
1.02012
1.02012
1.02012
1.02012
1.02012
1.02012
1.02012
1.02012
1.02012
1.02012
1.02012
1.02012
1.02012
1.02012
1.02012
1.02012
1.02012
1.02012
1.02012
1.02012
1.02012
1.02012
1.02012
1.02012
1.02012
1.02012
1.02012
1.02012
1.02012
1.02012
1.02012
1.02012
1.02012
1.02012
1.02012
1.02012
1.02012
1.02012
1.02012
1.02012
1.02012
1.02012
1.02012
1.02012
1.02012
1.02012
1.02012
1.02012
1.02012
1.02012
1.02012
1.02012
1.02012
1.02012
1.02012
1.02012
1.02012
1.02012
1.02012
1.02012
1.02012
1.02012
1.02012
1.02012
1.02012
1.02012
1.02012
1.02012
1.02012
1.02012
1.02012
1.02012
1.02012
1.02012
1.02012
1.02012
1.02012
1.02012
1.02012
1.02012
1.02012
1.02012
1.02012
1.02012
1.02012
1.02012
1.02012
1.02012
1.02012
1.02012
1.02012
1.02012
1.02012
1.02012
1.02012
1.02012
1.02012
1.02012
1.02012
1.02012
1.02012
1.02012
1.02012
1.02012
1.02012
1.02012
1.02012
1.02012
1.02012
1.02012
1.02012
1.02012
1.02012
1.02012
1.02012
1.02012
1.02012
1.02012
1.02012
1.02012
1.02012
1.02012
1.02012
1.02012
1.02012
1.02012
1.02012
1.02012
1.02012
1.02012
1.02012
1.02012
1.02012
1.02012
1.02012
1.02012
1.02012
1.02012
1.02012
1.02012
1.02012
1.02012
1.02012
1.02012
1.02012
1.02012
1.02012
1.02012
1.02012
1.02012
1.02012
1.02012
1.02012
1.02012
1.02012
1.02012
1.02012
1.02012
1.02012
1.02012
1.02012
1.02012
1.02012
1.02012
1.02012
1.02012
1.02012
1.02012
1.02012
1.02012
1.02012
1.02012
1.02012
1.02012
1.02012
1.02012
1.02012
1.02012
1.02012
1.02012
1.02012
1.02012
1.02012
1.02012
1.02012
1.02012
1.02012
1.02012
1.02012
1.02012
1.02012
1.02012
1.02012
1.02012
1.02012
1.02012
1.02012
1.02012
1.02012
1.02012
1.02012
1.02012
1.02012
1.02012
1.02012
1.02012
1.02012
1.02012
1.02012
1.02012
1.02012
1.02012
1.02012
1.02012
1.02012
1.02012
1.02012
1.02012
1.02012
1.02012
1.02012
1.02012
1.02012
1.02012
1.02012
1.02012
1.02012
1.02012
1.02012
1.02012
1.02012
1.02012
1.02012
1.02012
1.02012
1.02012
1.02012
1.02012
1.02012
1.02012
1.02012
1.02012
1.02012
1.02012
1.02012
1.02012
1.02012
1.02012
1.02012
1.02012
1.02012
1.02012
1.02012
1.02012
1.02012
1.02012
1.02012
1.02012
1.02012
1.02012
1.02012
1.02012
1.02012
1.02012
1.02012
1.02012
1.02012
1.02012
1.02012
1.02012
1.02012
1.02012
1.02012
1.02012
1.02012
1.02012
1.02012
1.02012
1.02012
1.02012
1.02012
1.02012
1.02012
1.02012
1.02012
1.02012
1.02012
1.02012
1.02012
1.02012
1.02012
1.02012
1.02012
1.02012
1.02012
1.02012
1.02012
1.02012
1.02012
1.02012
1.02012
1.02012
1.02012
1.02012
1.02012
1.02012
1.02012
1.02012
1.02012
1.02012
1.02012
1.02012
1.02012
1.02012
1.02012
1.02012
1.02012
1.02012
1.02012
1.02012
1.02012
1.02012
1.02012
1.02012
1.02012
1.02012
1.02012
1.02012
1.02012
1.02012
1.02012
1.02012
1.02012
1.02012
1.02012
1.02012
1.02012
1.02012
1.02012
1.02012
1.02012
1.02012
1.02012
1.02012
1.02012
1.02012
1.02012
1.02012
1.02012
1.02012
1.02012
1.02012
1.02012
1.02012
1.02012
1.02012
1.02012
1.02012
1.02012
1.02012
1.02012
1.02012
1.02012
1.02012
1.02012
1.02012
1.02012
1.02012
1.02012
1.02012
1.02012
1.02012
1.02012
1.02012
1.02012
1.02012
1.02012
1.02012
1.02012
1.02012
1.02012
1.02012
1.02012
1.02012
1.02012
1.02012
1.02012
1.02012
1.02012
1.02012
1.02012
1.02012
1.02012
1.02012
1.02012
1.02012
1.02012
1.02012
1.02012
1.02012
1.02012
1.02012
1.02012
1.02012
1.02012
1.02012
1.02012
1.02012
1.02012
1.02012
1.02012
1.02012
1.02012
1.02012
1.02012
1.02012
1.02012
1.02012
1.02012
1.02012
1.02012
1.02012
1.02012
1.02012
1.02012
1.02012
1.02012
1.02012
1.02012
1.02012
1.02012
1.02012
1.02012
1.02012
1.02012
1.02012
1.02012
1.02012
1.02012
1.02012
1.02012
1.02012
1.02012
1.02012
1.02012
1.02012
1.02012
1.02012
1.02012
1.02012
1.02012
1.02012
1.02012
1.02012
1.02012
1.02012
1.02012
1.02012
1.02012
1.02012
1.02012
1.02012
1.02012
1.02012
1.02012
1.02012
1.02012
1.02012
1.02012
1.02012
1.02012
1.02012
1.02012
1.02012
1.02012
1.02012
1.02012
1.02012
1.02012
1.02012
1.02012
1.02012
1.02012
1.02012
1.02012
1.02012
1.02012
1.02012
1.02012
1.02012
1.02012
1.02012
1.02012
1.02012
1.02012
1.02012
1.02012
1.02012
1.02012
1.02012
1.02012
1.02012
1.02012
1.02012
1.02012
1.02012
1.02012
1.02012
1.02012
1.02012
1.02012
1.02012
1.02012
1.02012
1.02012
1.02012
1.02012
1.02012
1.02012
1.02012
1.02012
1.02012
1.02012
1.02012
1.02012
1.02012
1.02012
1.02012
1.02012
1.02012
1.02012
1.02012
1.02012
1.02012
1.02012
1.02012
1.02012
1.02012
1.02012
1.02012
1.02012
1.02012
1.02012
1.02012
1.02012
1.02012
1.02012
1.02012
1.02012
1.02012
1.02012
1.02012
1.02012
1.02012
1.02012
1.02012
1.02012
1.02012
1.02012
1.02012
1.02012
1.02012
1.02012
1.02012
1.02012
1.02012
1.02012
1.02012
1.02012
1.02012
1.02012
1.02012
1.02012
1.02012
1.02012
1.02012
1.02012
1.02012
1.02012
1.02012
1.02012
1.02012
1.02012
1.02012
1.02012
1.02012
1.02012
1.02012
1.02012
1.02012
1.02012
1.02012
1.02012
1.02012
1.02012
1.02012
1.02012
1.02012
1.02012
1.02012
1.02012
1.02012
1.02012
1.02012
1.02012
1.02012
1.02012
1.02012
1.02012
1.02012
1.02012
1.02012
1.02012
1.02012
1.02012
1.02012
1.02012
1.02012
1.02012
1.02012
1.02012
1.02012
1.02012
1.02012
1.02012
1.02012
1.02012
1.02012
1.02012
1.02012
1.02012
1.02012
1.02012
1.02012
1.02012
1.02012
1.02012
1.02012
1.02012
1.02012
1.02012
1.02012
1.02012
1.02012
1.02012
1.02012
1.02012
1.02012
1.02012
1.02012
1.02012
1.02012
1.02012
1.02012
1.02012
1.02012
1.02012
1.02012
1.02012
1.02012
1.02012
1.02012
1.02012
1.02012
1.02012
1.02012
1.02012
1.02012
1.02012
1.02012
1.02012
1.02012
1.02012
1.02012
1.02012
1.02012
1.02012
1.02012
1.02012
1.02012
1.02012
1.02012
1.02012
1.02012
1.02012
1.02012
1.02012
1.02012
1.02012
1.02012
1.02012
1.02012
1.02012
1.02012
1.02012
1.02012
1.02012
1.02012
1.02012
1.02012
1.02012
1.02012
1.02012
1.02012
1.02012
1.02012
1.02012
1.02012
1.02012
1.02012
1.02012
1.02012
1.02012
1.02012
1.02012
1.02012
1.02012
1.02012
1.02012
1.02012
1.02012
1.02012
1.02012
1.02012
1.02012
1.02012
1.02012
1.02012
1.02012
1.02012
1.02012
1.02012
1.02012
1.02012
1.02012
1.02012
1.02012
1.02012
1.02012
1.02012
1.02012
1.02012
1.02012
1.02012
1.02012
1.02012
1.02012
1.02012
1.02012
1.02012
1.02012
1.02012
1.02012
1.02012
1.02012
1.02012
1.02012
1.02012
1.02012
1.02012
1.02012
1.02012
1.02012
1.02012
1.02012
1.02012
1.02012
1.02012
1.02012
1.02012
1.02012
1.02012
1.02012
1.02012
1.02012
1.02012
1.02012
1.02012
1.02012
1.02012
1.02012
1.02012
1.02012
1.02012
1.02012
1.02012
1.02012
1.02012
1.02012
1.02012
1.02012
1.02012
1.02012
1.02012
1.02012
1.02012
1.02012
1.02012
1.02012
1.02012
1.02012
1.02012
1.02012
1.02012
1.02012
1.02012
1.02012
1.02012
1.02012
1.02012
1.02012
1.02012
1.02012
1.02012
1.02012
1.02012
1.02012
1.02012
1.02012
1.02012
1.02012
1.02012
1.02012
1.02012
1.02012
1.02012
1.02012
1.02012
1.02012
1.02012
1.02012
1.02012
1.02012
1.02012
1.02012
1.02012
1.02012
1.02012
1.02012
1.02012
1.02012
1.02012
1.02012
1.02012
1.02012
1.02012
1.02012
1.02012
1.02012
1.02012
1.02012
1.02012
1.02012
1.02012
1.02012
1.02012
1.02012
1.02012
1.02012
1.02012
1.02012
1.02012
1.02012
1.02012
1.02012
1.02012
1.02012
1.02012
1.02012
1.02012
1.02012
1.02012
1.02012
1.02012
1.02012
1.02012
1.02012
1.02012
1.02012
1.02012
1.02012
1.02012
1.02012
1.02012
1.02012
1.02012
1.02012
1.02012
1.02012
1.02012
1.02012
1.02012
1.02012
1.02012
1.02012
1.02012
1.02012
1.02012
1.02012
1.02012
1.02012
1.02012
1.02012
1.02012
1.02012
1.02012
1.02012
1.02012
1.02012
1.02012
1.02012
1.02012
1.02012
1.02012
1.02012
1.02012
1.02012
1.02012
1.02012
1.02012
1.02012
1.02012
1.02012
1.02012
1.02012
1.02012
1.02012
1.02012
1.02012
1.02012
1.02012
1.02012
1.02012
1.02012
1.02012
1.02012
1.02012
1.02012
1.02012
1.02012
1.02012
1.02012
1.02012
1.02012
1.02012
1.02012
1.02012
1.02012
1.02012
1.02012
1.02012
1.02012
1.02012
1.02012
1.02012
1.02012
1.02012
1.02012
1.02012
1.02012
1.02012
1.02012
1.02012
1.02012
1.02012
1.02012
1.02012
1.02012
1.02012
1.02012
1.02012
1.02012
1.02012
1.02012
1.02012
1.02012
1.02012
1.02012
1.02012
1.02012
1.02012
1.02012
1.02012
1.02012
1.02012
1.02012
1.02012
1.02012
1.02012
1.02012
1.02012
1.02012
1.02012
1.02012
1.02012
1.02012
1.02012
1.02012
1.02012
1.02012
1.02012
1.02012
1.02012
1.02012
1.02012
1.02012
1.02012
1.02012
1.02012
1.02012
1.02012
1.02012
1.02012
1.02012
1.02012
1.02012
1.02012
1.02012
1.02012
1.02012
1.02012
1.02012
1.02012
1.02012
1.02012
1.02012
1.02012
1.02012
1.02012
1.02012
1.02012
1.02012
1.02012
1.02012
1.02012
1.02012
1.02012
1.02012
1.02012
1.02012
1.02012
1.02012
1.02012
1.02012
1.02012
1.02012
1.02012
1.02012
1.02012
1.02012
1.02012
1.02012
1.02012
1.02012
1.02012
1.02012
1.02012
1.02012
1.02012
1.02012
1.02012
1.02012
1.02012
1.02012
1.02012
1.02012
1.02012
1.02012
1.02012
1.02012
1.02012
1.02012
1.02012
1.02012
1.02012
1.02012
1.02012
1.02012
1.02012
1.02012
1.02012
1.02012
1.02012
1.02012
1.02012
1.02012
1.02012
1.02012
1.02012
1.02012
1.02012
1.02012
1.02012
1.02012
1.02012
1.02012
1.02012
1.02012
1.02012
1.02012
1.02012
1.02012
1.02012
1.02012
1.02012
1.02012
1.02012
1.02012
1.02012
1.02012
1.02012
1.02012
1.02012
1.02012
1.02012
1.02012
1.02012
1.02012
1.02012
1.02012
1.02012
1.02012
1.02012
1.02012
1.02012
1.02012
1.02012
1.02012
1.02012
1.02012
1.02012
1.02012
1.02012
1.02012
1.02012
1.02012
1.02012
1.02012
1.02012
1.02012
1.02012
1.02012
1.02012
1.02012
1.02012
1.02012
1.02012
1.02012
1.02012
1.02012
1.02012
1.02012
1.02012
1.02012
1.02012
1.02012
1.02012
1.02012
1.02012
1.02012
1.02012
1.02012
1.02012
1.02012
1.02012
1.02012
1.02012
1.02012
1.02012
1.02012
1.02012
1.02012
1.02012
1.02012
1.02012
1.02012
1.02012
1.02012
1.02012
1.02012
1.02012
1.02012
1.02012
1.02012
1.02012
1.02012
1.02012
1.02012
1.02012
1.02012
1.02012
1.02012
1.02012
1.02012
1.02012
1.02012
1.02012
1.02012
1.02012
1.02012
1.02012
1.02012
1.02012
1.02012
1.02012
1.02012
1.02012
1.02012
1.02012
1.02012
1.02012
1.02012
1.02012
1.02012
1.02012
1.02012
1.02012
1.02012
1.02012
1.02012
1.02012
1.02012
1.02012
1.02012
1.02012
1.02012
1.02012
1.02012
1.02012
1.02012
1.02012
1.02012
1.02012
1.02012
1.02012
1.02012
1.02012
1.02012
1.02012
1.02012
1.02012
1.02012
1.02012
1.02012
1.02012
1.02012
1.02012
1.02012
1.02012
1.02012
1.02012
1.02012
1.02012
1.02012
1.02012
1.02012
1.02012
1.02012
1.02012
1.02012
1.02012
1.02012
1.02012
1.02012
1.02012
1.02012
1.02012
1.02012
1.02012
1.02012
1.02012
1.02012
1.02012
1.02012
1.02012
1.02012
1.02012
1.02012
1.02012
1.02012
1.02012
1.02012
1.02012
1.02012
1.02012
1.02012
1.02012
1.02012
1.02012
1.02012
1.02012
1.02012
1.02012
1.02012
1.02012
1.02012
1.02012
1.02012
1.02012
1.02012
1.02012
1.02012
1.02012
1.02012
1.02012
1.02012
1.02012
1.02012
1.02012
1.02012
1.02012
1.02012
1.02012
1.02012
1.02012
1.02012
1.02012
1.02012
1.02012
1.02012
1.02012
1.02012
1.02012
1.02012
1.02012
1.02012
1.02012
1.02012
1.02012
1.02012
1.02012
1.02012
1.02012
1.02012
1.02012
1.02012
1.02012
1.02012
1.02012
1.02012
1.02012
1.02012
1.02012
1.02012
1.02012
1.02012
1.02012
1.02012
1.02012
1.02012
1.02012
1.02012
1.02012
1.02012
1.02012
1.02012
1.02012
1.02012
1.02012
1.02012
1.02012
1.02012
1.02012
1.02012
1.02012
1.02012
1.02012
1.02012
1.02012
1.02012
1.02012
1.02012
1.02012
1.02012
1.02012
1.02012
1.02012
1.02012
1.02012
1.02012
1.02012
1.02012
1.02012
1.02012
1.02012
1.02012
1.02012
1.02012
1.02012
1.02012
1.02012
1.02012
1.02012
1.02012
1.02012
1.02012
1.02012
1.02012
1.02012
1.02012
1.02012
1.02012
1.02012
1.02012
1.02012
1.02012
1.02012
1.02012
1.02012
1.02012
1.02012
1.02012
1.02012
1.02012
1.02012
1.02012
1.02012
1.02012
1.02012
1.02012
1.02012
1.02012
1.02012
1.02012
1.02012
1.02012
1.02012
1.02012
1.02012
1.02012
1.02012
1.02012
1.02012
1.02012
1.02012
1.02012
1.02012
1.02012
1.02012
1.02012
1.02012
1.02012
1.02012
1.02012
1.02012
1.02012
1.02012
1.02012
1.02012
1.02012
1.02012
1.02012
1.02012
1.02012
1.02012
1.02012
1.02012
1.02012
1.02012
1.02012
1.02012
1.02012
1.02012
1.02012
1.02012
1.02012
1.02012
1.02012
1.02012
1.02012
1.02012
1.02012
1.02012
1.02012
1.02012
1.02012
1.02012
1.02012
1.02012
1.02012
1.02012
1.02012
1.02012
1.02012
1.02012
1.02012
1.02012
1.02012
1.02012
1.02012
1.02012
1.02012
1.02012
1.02012
1.02012
1.02012
1.02012
1.02012
1.02012
1.02012
1.02012
1.02012
1.02012
1.02012
1.02012
1.02012
1.02012
1.02012
1.02012
1.02012
1.02012
1.02012
1.02012
1.02012
1.02012
1.02012
1.02012
1.02012
1.02012
1.02012
1.02012
1.02012
1.02012
1.02012
1.02012
1.02012
1.02012
1.02012
1.02012
1.02012
1.02012
1.02012
1.02012
1.02012